ITEM: TIMESTEP
400000
ITEM: NUMBER OF ATOMS
902
ITEM: BOX BOUNDS pp pp pp
0.000000e+00 3.017904e+01
0.000000e+00 3.018000e+01
0.000000e+00 3.020835e+01
ITEM: ATOMS id x y z fx fy fz
1 5.410667 3.156246 15.808822 3.774730 13.609470 -2.114275
2 24.747410 13.766428 17.210243 2.425639 1.876890 -9.739650
3 12.843900 25.832212 12.363717 2.409377 2.213950 7.169850
4 25.028410 22.333860 23.321983 -0.382360 2.941450 1.767170
5 11.932989 6.822033 29.325411 0.206470 11.127431 9.021230
6 8.773286 13.736073 29.641216 -0.866120 0.284805 -5.109270
7 9.083773 4.805674 10.724094 -2.153730 7.611170 -0.812210
8 19.221273 2.374938 28.635073 -1.051995 15.286340 -1.435926
9 12.453156 29.337894 22.242861 -4.252860 -4.100200 6.469586
10 4.050039 19.618368 24.669744 -3.816884 2.203601 -1.023836
11 0.423356 2.061222 24.583233 -9.209770 3.568805 5.429681
12 13.586827 3.072292 6.398012 6.968810 -7.562645 -3.516811
13 22.525251 16.135517 5.304058 -4.391660 0.260500 -5.711089
14 17.076729 7.840786 12.471678 7.764768 8.449030 -2.068920
15 14.772806 29.968843 24.546833 -5.912150 2.319384 9.074088
16 25.495522 15.989305 22.485718 1.738454 -3.525854 0.012981
17 17.463116 25.694511 25.294617 1.397533 2.858110 4.242590
18 19.486084 7.002827 30.186716 -4.270302 3.754610 -0.822639
19 6.151873 18.762365 28.943033 -1.933220 2.434263 -1.787250
20 16.523983 26.800995 4.824825 4.518333 4.548560 -6.918705
21 15.750417 3.472628 15.196472 -13.517540 0.038100 9.688910
22 12.176311 4.335817 8.269814 -4.249990 3.588580 6.690710
23 17.026661 8.985607 1.426319 -1.036688 -10.792304 -7.390740
24 12.738389 17.069044 1.434544 -2.488752 -1.223030 0.123367
25 13.174483 28.645065 12.942056 5.814358 -4.042757 -11.628813
26 2.005450 29.536516 29.656750 7.506760 4.697967 -7.583985
27 24.530846 14.335195 10.838494 -2.872082 -7.271600 8.099792
28 8.313527 22.418406 12.345005 -7.143960 -2.945290 2.039520
29 4.670364 21.119644 27.058483 -2.369241 -0.962001 2.262990
30 19.996017 9.514760 18.107800 -5.894573 0.787651 -8.686970
31 6.407825 13.805433 16.546049 6.335610 0.969394 3.016790
32 12.346445 3.762442 22.411333 6.080100 10.032010 2.293360
33 6.263587 9.861767 25.299133 3.332315 0.651963 -1.438391
34 0.136886 22.615183 24.085806 11.317619 -2.511401 -0.371249
35 26.018328 6.529147 1.463970 4.651560 -0.447130 4.014370
36 5.754868 27.937984 9.044802 4.583120 -3.322965 -5.213880
37 23.359922 24.308489 6.463943 3.640147 -1.991801 -2.951265
38 27.746689 28.427551 24.236721 3.161774 1.568406 -2.014540
39 6.179491 9.665950 11.081895 1.079756 -1.340517 -5.398330
40 18.696083 16.347139 3.536720 0.655740 -0.327404 3.128347
41 25.899500 24.033394 26.042700 3.533795 8.720774 -0.774936
42 17.280767 29.705132 22.110600 -1.528524 -1.732178 -7.578375
43 3.806341 17.142450 15.489166 3.178677 -6.057304 -13.694380
44 7.049421 5.750445 25.175045 2.240410 4.232110 -2.944984
45 29.423222 2.457280 27.237362 -6.214730 -4.770924 -4.051210
46 8.784069 24.875561 25.354073 5.478120 2.417200 2.273169
47 23.983299 21.008595 0.006003 5.548210 -2.899444 3.176186
48 23.934933 1.783049 7.613669 -1.847927 -1.119290 -2.541286
49 10.420650 4.848905 24.399654 2.317512 -12.706383 4.832460
50 11.333333 18.410038 29.402628 7.691628 -1.486540 5.188580
51 18.358273 14.403822 8.996243 6.304085 -1.868540 9.643030
52 4.795560 12.804422 14.530377 -12.817351 -14.330870 5.072510
53 15.657967 6.154201 11.037883 4.296090 -9.043591 1.271932
54 2.340100 22.032272 11.075933 11.801794 6.625056 5.830199
55 0.745689 26.590811 13.204433 -5.992240 -4.273700 -5.303690
56 4.673738 18.717527 17.427628 5.287874 3.071770 5.029140
57 17.716644 0.208074 1.957409 -5.598172 3.198294 11.884733
58 2.241274 6.063195 12.845410 -4.094710 -6.030716 0.766599
59 5.022946 27.841583 11.605128 -2.658994 0.394890 2.028588
60 6.246662 9.513792 5.473813 2.579440 5.838370 0.734280
61 29.587288 21.780373 8.749872 2.459240 -3.664290 -5.240371
62 18.122078 5.575252 5.123173 3.764862 -3.730112 3.061167
63 17.422199 20.567194 23.284477 -4.974270 14.826740 -6.333567
64 13.002466 21.576323 24.718140 -4.507357 -2.164800 -11.519643
65 4.776662 24.200483 8.659577 6.424560 4.204491 0.724510
66 0.402566 18.032484 5.297456 6.193786 -1.104290 4.744040
67 7.733785 25.932072 8.802636 -6.348131 10.750851 -8.270713
68 14.222578 10.748861 5.068759 -6.404271 -5.714391 -1.625989
69 21.397078 14.917906 15.974206 2.958398 -9.337036 -3.261240
70 22.851456 14.262283 8.414251 0.325458 -2.888615 -3.105090
71 19.259762 16.613556 14.311372 3.090750 3.587130 2.191740
72 25.360411 26.207651 5.472026 -9.556909 -0.033038 -3.391641
73 16.715534 0.634187 17.080528 4.391800 0.525039 -2.417770
74 19.776155 12.499361 22.063816 -3.478380 -7.375150 2.745510
75 10.428344 21.452784 23.555111 4.152757 1.322365 -2.983609
76 9.609560 15.362833 11.327405 0.990580 0.628947 -3.829659
77 25.667076 25.185394 18.861750 8.369322 1.116770 -0.373320
78 28.908068 11.927606 27.130884 2.868635 8.686601 -0.782498
79 28.899784 10.166233 12.557728 11.809247 0.668868 -6.239340
80 13.157906 26.182112 7.450196 3.320600 3.952371 1.171589
81 23.970911 11.070678 16.246889 3.455090 3.069863 -0.859483
82 24.732012 10.129894 25.632660 -7.171505 -5.007513 5.720170
83 6.137292 12.782261 25.322927 -4.669210 2.773457 -0.026450
84 19.550144 16.478701 10.432089 -0.158804 -0.577553 4.277292
85 22.466534 1.094305 0.755513 -1.703962 7.014226 1.112911
86 9.954076 2.762936 29.006474 1.340995 -0.194670 -3.023125
87 23.160923 27.777843 14.430806 -0.350280 5.243017 1.104219
88 25.767155 14.457950 29.416759 4.495100 8.185869 2.988681
89 15.086094 24.275240 21.170734 -2.154741 1.016011 2.758220
90 8.346174 20.150389 1.623000 2.938360 15.054428 -4.885631
91 29.206900 16.010433 6.369663 7.964030 -4.173988 -10.538460
92 5.649681 29.068529 27.488350 -0.070479 3.637453 4.252160
93 29.901701 6.952352 2.238048 12.432961 -7.676500 11.414769
94 2.024335 29.917078 23.154745 1.518813 -5.731435 4.822036
95 18.548990 2.845981 1.455194 3.551231 3.045934 -2.707763
96 19.454079 14.279728 17.994188 -5.305822 -6.614600 -5.069359
97 23.032200 18.104073 21.054111 -0.912320 -0.821572 3.471489
98 25.200928 15.666783 15.009028 -12.156740 -1.796810 6.857506
99 12.895711 18.390734 5.919866 0.947250 5.925693 3.096310
100 8.711078 0.192091 26.494566 1.049589 1.432816 1.844820
101 22.170395 6.531710 29.659773 9.554165 -4.409353 2.524420
102 10.999272 8.971948 20.077072 -6.322062 7.341967 5.786780
103 4.436780 20.403545 9.715042 -1.434410 -6.901610 -7.682440
104 9.162750 7.200181 18.009356 -0.351630 -6.670010 -3.299760
105 4.273024 23.169205 28.902994 8.472158 3.297249 3.917299
106 8.971634 28.381622 4.162783 -2.941495 3.054620 -3.242740
107 10.939617 28.996595 26.891710 1.615340 -3.916484 1.656260
108 4.472590 21.696184 12.750545 1.173965 8.543921 1.089116
109 29.114223 20.731945 25.627838 -6.312100 -1.333451 -1.621790
110 23.373917 11.917211 13.618678 1.132000 -13.094975 -1.967490
111 25.270456 17.046911 28.541059 4.077567 4.653830 7.259161
112 13.083577 16.545488 19.722666 2.920880 -2.561775 -0.788372
113 8.668681 17.170782 5.079650 -4.235671 3.040984 -1.103490
114 13.940817 2.261152 19.479677 -0.420202 7.392960 -8.113408
115 9.795861 5.098211 7.035109 7.978148 -1.200106 -13.528100
116 11.808589 10.816400 22.828573 -1.820151 -5.963956 2.151980
117 1.720366 17.688812 25.540461 9.912180 5.269710 11.427050
118 22.713083 18.022478 28.271645 -3.073533 4.120210 -9.316100
119 27.187889 24.928371 4.024248 8.317821 3.374552 -3.672530
120 27.556362 14.098027 22.700073 4.273202 8.266260 12.771664
121 18.128517 14.458644 13.397272 -4.292936 -8.685740 -4.137126
122 17.096151 14.032078 27.786333 0.463396 10.632423 -9.501613
123 2.861848 9.731586 18.251944 3.289488 -0.097497 4.246248
124 22.145006 13.129117 24.334595 2.973241 -1.726480 -3.154710
125 10.472040 2.619195 20.941479 -10.545875 15.863167 16.510445
126 16.106916 14.282155 25.210783 2.511245 -4.589748 6.873762
127 24.490082 16.477934 9.372532 -3.196640 -2.727010 -12.342450
128 28.629990 16.517488 1.520655 3.914910 1.846676 1.344381
129 12.705089 21.340572 27.322201 9.272667 -5.577910 5.453860
130 14.201777 25.870422 17.840000 -0.492480 1.833240 5.389719
131 2.982528 6.369936 28.168917 1.848832 -8.165950 4.589895
132 2.240330 17.280672 19.413494 0.436270 5.752610 2.654730
133 1.332110 16.669849 16.336834 -5.882685 -2.773054 -0.474480
134 24.872078 8.162189 11.537994 -0.977874 6.318095 8.129840
135 29.007339 22.146427 17.138889 3.001135 5.471340 -7.416536
136 19.027750 3.603485 18.170282 4.924890 1.670580 4.971660
137 16.690460 10.090645 26.451761 -3.156272 8.316998 -1.095915
138 14.377894 23.938217 9.218415 5.710750 6.221770 -8.864886
139 20.137627 3.593182 24.112894 -2.770925 -1.521300 0.148951
140 26.454350 3.840566 24.402468 -5.395470 0.335150 -10.757330
141 3.445539 26.666521 8.103795 -3.468054 0.397670 -2.499140
142 21.408428 21.439922 29.935717 -12.412470 5.158740 -3.161555
143 24.193010 6.128982 7.528419 4.742090 -7.790830 -2.507727
144 27.175850 9.961388 26.970295 -6.399268 -7.047912 -7.340669
145 4.502948 25.464817 18.516039 5.139690 4.763080 -4.624270
146 0.852291 25.915438 17.690578 -1.377730 1.307059 0.248678
147 13.471605 10.736516 12.719639 -7.083145 8.374390 -12.061458
148 0.494077 6.887084 29.458950 -2.767880 -6.881451 6.834445
149 18.461599 6.178013 8.634539 -3.193083 2.650120 2.319660
150 15.457650 14.862772 29.879871 10.711367 -7.523189 18.660963
151 2.853940 26.836033 5.368469 -8.072020 2.208840 -0.044040
152 0.329342 9.907088 8.003420 1.918471 -5.229150 -5.137050
153 23.282627 26.465027 25.139578 2.967420 -4.142630 -4.401864
154 14.205017 13.418650 7.735479 -4.849121 -1.137490 0.955028
155 12.187178 26.669905 0.153602 0.824150 -1.233148 -6.509049
156 22.709511 3.011301 9.961262 2.583217 -2.689510 5.187686
157 0.672965 0.191680 20.693506 4.325253 0.171890 12.445740
158 12.387789 16.909445 15.167145 -1.544821 2.106334 -3.913850
159 0.060620 6.965095 5.168850 -0.682040 3.742611 -2.112696
160 2.672068 2.033481 14.883211 -4.656286 4.686830 -2.428955
161 25.424301 26.499712 12.002522 -5.104681 -0.914476 3.758258
162 6.709134 4.377875 22.753422 1.191800 -1.126652 6.101250
163 15.193334 24.531578 11.696950 -0.904730 5.339400 3.418370
164 16.218349 0.999146 14.365300 -2.411790 -10.635610 -8.952340
165 29.662933 23.403427 28.326689 -4.041524 -7.604190 -0.357141
166 22.071522 16.710873 23.450972 20.484058 -1.108244 -13.168480
167 28.207207 7.398166 15.448566 1.166536 2.788215 -2.630660
168 23.851345 0.308396 15.570500 -3.991029 -6.928333 -7.173300
169 6.493522 20.626511 5.235431 2.492600 -7.297150 0.363410
170 1.750006 8.747372 26.050966 -3.485871 2.495019 -1.136810
171 17.785599 18.103050 23.835756 -5.496293 -17.402380 -0.302272
172 19.501373 19.753473 0.852704 -2.480634 0.637532 0.730333
173 3.318005 25.829683 16.109777 -0.565171 -5.113170 -9.165705
174 21.594606 25.594973 11.414083 -5.939109 -5.396280 4.517407
175 10.519891 26.116600 3.850991 7.356440 -1.580200 4.076301
176 28.829494 19.133327 3.212658 5.513220 4.242058 -3.196630
177 0.679299 0.860299 12.386845 -0.325610 2.471030 -8.070001
178 14.475095 5.640714 20.963249 -1.467375 -0.229970 5.057926
179 27.631166 27.040451 16.263895 1.324222 17.507889 -2.285073
180 13.626634 18.490496 25.473900 0.936890 -4.467447 -1.530800
181 26.792061 18.863579 15.501478 0.853020 -5.968000 -14.070191
182 3.401274 16.461805 0.457448 0.370331 7.126920 5.394900
183 20.701515 5.295803 19.735884 -9.095079 2.057186 1.217560
184 22.057594 29.953794 25.899979 5.076890 -9.256081 -4.198760
185 24.071033 22.215345 25.925716 -6.385560 -3.763639 -1.098205
186 26.893538 7.437264 4.032884 -7.479960 5.631661 -4.700208
187 22.685900 8.323359 26.131327 5.467181 -0.172137 -1.528490
188 6.259481 25.057795 6.300996 2.675860 -0.290916 11.170690
189 20.202211 22.234278 7.649360 -0.758200 0.195615 0.942547
190 12.092389 17.365505 12.002334 -0.018160 -3.439450 -0.201326
191 25.519632 26.254534 14.792684 -7.122858 4.060130 -3.042880
192 15.143833 12.481806 2.070088 0.128850 1.753495 1.815612
193 21.766644 5.955446 24.655144 0.204760 -5.538910 -5.243260
194 29.146906 18.255217 16.750507 5.745462 8.412069 0.168394
195 16.321098 3.484686 17.925571 -3.876180 -5.405231 -1.004996
196 10.254867 0.723207 7.328249 -3.915730 -2.921700 4.719399
197 8.744172 2.662081 16.981306 -0.979982 -4.300750 -2.407715
198 22.075811 13.218300 5.801449 -9.167170 0.986120 0.204954
199 17.118862 16.840555 28.319233 0.508240 -0.183164 0.944150
200 5.677766 0.348252 11.177755 -2.829420 -1.149680 5.931297
201 10.059791 5.087862 0.345674 -2.670374 2.061524 1.441050
202 16.226912 10.940678 16.834112 -14.227110 -6.791224 5.440384
203 8.333282 12.171333 15.626250 1.030745 -1.131350 4.793658
204 9.901361 7.570797 25.655083 -1.459830 6.899090 -4.621008
205 7.550941 2.681018 27.429571 0.905729 6.607028 -0.884490
206 5.620108 12.203978 28.939690 7.894853 -8.955679 -1.361242
207 16.090862 15.794133 2.304771 1.504156 1.322250 -0.168333
208 18.008368 24.102001 20.882456 1.906660 -2.779760 -3.681580
209 12.310022 23.998127 18.892817 7.159980 -6.164864 -4.506260
210 26.951506 4.985525 5.418727 2.241023 -1.098546 -0.605456
211 19.843073 10.047491 20.722567 -0.311350 6.866040 -5.919320
212 6.764247 20.368807 10.968572 7.236024 -5.532845 8.622190
213 4.129085 7.583451 25.984205 5.420653 1.664929 -1.807028
214 13.341000 4.914034 14.862489 -1.222860 6.066760 3.404256
215 7.621675 21.124067 26.664557 -4.294283 6.140240 -5.923190
216 14.214639 8.316072 28.083656 -8.439990 -2.677805 -4.996613
217 17.263027 23.836739 9.363750 -4.232140 -4.381648 -10.235360
218 8.389090 4.651712 20.526423 6.725979 4.166748 -4.640021
219 30.127245 3.431737 21.122299 -4.142601 -4.391796 -1.031853
220 20.560928 12.714338 9.285509 2.496482 -3.548101 2.086300
221 25.567184 25.419245 22.751606 -2.144158 -3.462990 2.505540
222 9.008639 14.750689 8.530674 -5.841037 8.590570 0.799889
223 12.973033 29.839333 28.511395 -8.079845 10.328200 3.093970
224 4.282448 18.292793 2.472945 5.831984 -3.483220 1.876680
225 25.926846 19.510889 3.685408 7.266186 -4.622734 -4.636717
226 8.551861 14.687934 14.141378 -7.816773 0.395252 -2.538910
227 1.157681 12.277817 12.325128 0.592230 8.751700 4.477201
228 10.677339 4.285033 14.645638 -0.279900 1.790094 -2.976513
229 1.392431 15.211217 11.248450 -2.410779 10.833410 -3.045830
230 8.655801 10.427757 21.112343 8.934560 2.315138 -1.224992
231 29.562883 25.602304 6.978214 -0.887740 6.754421 -0.117958
232 6.735717 23.755833 22.388779 -0.150600 2.924780 -8.753640
233 8.322820 16.648138 19.515800 -0.718487 -1.603257 2.109150
234 12.912916 0.818521 2.917065 -6.898006 -7.930580 1.015700
235 18.514782 28.766457 9.265357 -4.778933 10.314900 10.488561
236 0.717414 20.383554 1.401795 -1.986430 -11.049440 8.029585
237 24.856789 5.380432 22.589378 3.479318 -1.341600 16.512650
238 24.175367 29.573816 18.871506 3.301943 -6.538322 0.082041
239 18.706118 1.723836 8.880838 -1.028670 2.375918 -6.086220
240 3.782353 1.897943 18.809343 -0.770820 -3.095397 5.278172
241 3.454306 9.481138 22.980740 2.418800 1.363113 -0.798750
242 10.041110 0.909680 3.666460 11.286685 -2.403500 -1.968440
243 19.766661 13.553323 27.521767 3.027887 5.266640 -1.657030
244 26.327206 28.491961 26.623661 0.631099 -4.741135 3.046780
245 22.221523 15.228067 28.321362 -2.301376 -5.622296 -0.822680
246 25.333595 20.536283 27.927755 0.782331 -3.327580 -4.369410
247 8.660511 13.615761 19.296911 -1.680580 3.316100 1.241530
248 11.337289 1.983467 26.546194 -1.976933 0.310041 -4.621601
249 29.358555 7.483705 20.349104 -6.969850 -7.586315 19.233454
250 11.368000 25.592312 20.807833 3.665620 2.212920 10.860510
251 27.608772 0.373057 27.781898 5.001830 4.191340 3.549070
252 21.508894 0.423435 13.837489 3.081090 3.086890 -2.696624
253 4.679615 23.696632 14.866305 0.310374 -2.548571 1.286684
254 6.313597 29.281467 14.377244 -0.038520 3.576623 0.995970
255 17.003277 26.778555 7.448006 -5.894396 -3.936080 -1.229090
256 21.010733 18.219690 6.295562 -3.505280 -2.414497 2.038368
257 20.850216 3.955093 14.923844 1.654440 -0.948147 5.134611
258 16.148872 29.457100 4.160541 4.022380 -6.477370 -1.876000
259 9.477428 0.032879 29.891533 -4.142307 4.472539 -7.523551
260 25.983067 22.611000 3.669477 -15.185395 -6.688559 15.123490
261 24.503950 23.589428 0.723147 7.028627 3.317517 4.160580
262 20.008249 17.081884 20.164228 -0.718644 -5.656950 0.634530
263 17.776739 8.864769 21.882767 -1.703350 6.190949 9.944540
264 26.473011 5.791205 28.201355 -5.321500 8.160204 8.250280
265 29.191467 3.291373 6.055921 2.146240 3.810763 2.871247
266 10.220606 9.139327 29.616400 1.317660 -7.996898 -4.068056
267 5.954851 3.687002 29.582916 5.569961 -0.664334 8.099607
268 13.985350 10.408589 29.903379 9.103563 -2.651160 -0.329048
269 7.331789 21.969006 29.863943 -5.475795 -10.667889 11.897631
270 27.475996 23.246351 13.014094 -8.071111 0.877447 -1.926111
271 9.787192 8.416787 8.457157 -0.621047 4.079514 5.599330
272 24.141861 13.142562 19.705505 -8.292070 -1.156732 12.674852
273 24.991051 28.396467 23.869473 7.614168 -3.111710 0.064020
274 6.733908 9.433304 19.299917 -0.849471 -6.211628 10.610195
275 11.125733 9.601564 10.633544 -3.528846 1.494502 4.190721
276 11.221355 14.845022 13.797511 3.778088 3.007860 2.531642
277 10.682635 19.012890 21.748795 -2.293445 -3.605943 6.017460
278 27.649979 18.184404 5.891043 -0.317584 0.853010 -1.858010
279 0.153049 28.713812 18.564533 4.360710 -13.177111 0.653982
280 14.931228 14.340650 15.078183 -1.064640 -0.031167 6.782990
281 15.040322 22.182444 22.929945 -1.230535 -4.879540 2.089792
282 22.702511 6.014093 18.172321 12.573490 4.941460 -9.445690
283 3.285445 22.082428 8.005793 -5.526180 2.947790 -2.146240
284 19.976494 18.477623 28.817760 2.714853 -7.693866 -6.289881
285 15.813906 4.824738 7.895658 0.442487 -4.629263 3.728234
286 14.403094 6.010718 26.313932 -20.078251 7.461215 -7.621273
287 1.394426 11.772361 3.842577 11.866973 12.847600 -2.280012
288 17.995071 20.575666 17.989643 6.353621 -2.632100 -10.766049
289 15.471210 27.627707 15.992184 -2.825592 2.421544 4.986530
290 10.322150 24.671112 0.362918 -2.983155 -3.503655 9.240751
291 10.701205 6.448215 20.664139 -7.425640 -10.546579 1.884734
292 5.920619 19.138884 13.413389 -3.520760 5.076600 -4.121384
293 18.613710 8.947875 8.784870 -2.692983 -6.738020 -2.952551
294 4.461664 5.235949 24.225611 -7.963850 -3.823390 -5.123571
295 16.688921 25.369005 0.954858 -2.327711 -8.142985 0.802320
296 24.940655 27.026260 8.980391 6.274910 -2.401996 2.046135
297 17.229015 4.843339 23.026463 5.419650 5.728430 0.177221
298 2.220422 24.718512 1.905046 -1.986341 -3.352730 3.456942
299 25.930334 9.656845 14.070183 -1.374418 5.537370 -3.474802
300 20.153421 24.943222 24.346373 -3.979253 -0.398153 2.691362
301 8.321592 8.322139 27.658966 2.282080 -0.211750 8.201770
302 3.372053 12.626545 1.843464 -12.935678 -0.236184 0.185560
303 7.102091 15.490823 0.622016 2.900510 6.706788 6.884855
304 22.623466 17.896889 10.595616 -1.102570 7.072390 4.389719
305 24.596945 9.990440 29.145329 7.058090 3.576048 2.122577
306 21.301256 13.442477 19.862156 -2.086367 -4.077860 -1.980224
307 11.022766 6.298357 12.122277 -1.698040 -0.579118 3.393794
308 13.696900 22.356274 6.938963 2.940780 -3.252589 1.944241
309 22.166073 11.340356 3.726797 8.800210 1.446856 0.213440
310 20.064850 19.774538 19.507973 7.838070 -0.569266 -4.190409
311 28.610167 19.527838 29.311951 7.872790 -1.949100 8.415319
312 13.305144 25.450212 3.553398 -6.207129 2.963190 4.656710
313 3.898783 25.331861 26.222183 8.033478 -8.943163 2.716686
314 7.134358 1.049077 19.191523 -0.015440 -1.861698 -4.766710
315 13.660161 21.638660 19.968771 3.315040 2.309020 4.281220
316 12.642817 28.296438 15.619572 4.243749 4.072310 3.692256
317 27.990662 14.636233 27.577084 1.411140 -7.029154 5.446680
318 8.976151 25.876911 28.182583 0.136796 0.481603 -6.065520
319 5.111319 8.173053 21.284399 2.447619 -1.834129 -2.875666
320 9.635058 28.245573 1.475092 2.615876 -2.203930 6.557490
321 13.812939 24.557745 1.113981 3.189152 -1.243330 -2.454660
322 2.438805 14.921261 4.798599 1.043250 5.262620 -4.792215
323 10.298028 27.917534 14.331256 -0.534651 -2.068850 13.926080
324 3.381644 1.235814 7.167034 5.107450 -1.632707 6.389990
325 29.293222 13.190300 9.903853 -9.704560 -3.106451 3.831976
326 13.132672 2.125441 24.282606 1.369903 -8.916910 11.499783
327 16.917021 16.270428 11.464701 8.192940 3.741395 2.811320
328 15.155222 9.339068 22.912571 5.757280 -10.373064 -6.877120
329 4.885626 3.727175 20.520239 -4.190570 -1.975090 -2.589350
330 27.953211 8.625290 6.252518 5.053319 -1.536340 -3.246680
331 20.384033 6.666767 15.509772 -2.476876 -0.338560 1.822132
332 19.165133 26.244511 2.871004 -2.547650 5.557217 -5.041815
333 0.422792 4.764709 17.127144 11.363780 3.340630 10.650932
334 1.222837 4.741428 7.162233 -8.001924 1.795544 -0.781791
335 21.239534 27.147539 23.193605 4.674070 4.857498 -2.668185
336 8.839275 23.272144 28.224356 5.507030 -3.756460 -3.922921
337 5.051680 24.525351 11.456944 0.188924 -3.273630 -3.764970
338 13.692866 9.262431 19.917173 6.142824 2.907520 5.860466
339 4.720081 6.591498 0.168789 7.532718 0.535090 -3.988170
340 12.252567 23.964649 26.243250 -0.955480 -3.497389 2.384920
341 11.023427 15.368067 27.470234 2.737700 -2.761157 -0.061850
342 0.569526 14.781577 13.848945 5.410940 -8.571657 3.987678
343 19.863007 28.467182 26.602571 -2.025855 -5.645280 -9.164250
344 0.423287 12.736356 17.222834 -4.495330 -7.280380 1.273770
345 8.897768 12.421390 27.021656 5.954849 1.802029 2.998310
346 0.754717 29.754261 9.281004 5.051300 7.985869 3.384410
347 15.996750 11.856283 28.648111 -13.347775 -12.417109 1.178115
348 8.057308 6.387393 8.471243 -5.915894 -3.813150 11.470738
349 20.876310 5.406300 27.424784 -4.504454 -3.074120 1.046680
350 2.548506 5.003758 15.504761 -1.541430 -6.416974 -6.801958
351 12.071861 9.369814 15.167706 -9.570865 -0.985770 5.231170
352 22.055889 15.755083 18.729200 2.300900 8.530280 0.827260
353 3.420328 1.143163 9.984071 -11.714930 -1.899461 -0.761850
354 23.058817 3.484347 29.685217 -4.182678 -5.000897 2.880183
355 21.360855 5.376322 10.065560 3.289200 3.150783 2.673032
356 21.550856 20.127329 14.348300 8.593890 -2.780519 -1.539591
357 18.855501 26.202560 27.790594 -0.098000 -1.587000 -4.566617
358 10.441214 4.712880 17.586960 -3.330526 5.871829 -5.221430
359 6.060099 29.067101 3.650829 3.666565 -5.032139 2.447876
360 8.165818 29.101845 16.397577 1.764108 0.055289 -4.944650
361 14.637972 0.349979 21.223679 13.254107 5.241370 2.788048
362 26.584700 10.401578 7.909153 2.868420 1.034490 -0.552433
363 16.445223 27.176605 10.375359 -5.018040 0.238200 2.912524
364 14.044839 14.659094 21.437593 -3.595855 -1.574620 -1.758238
365 2.200516 24.756721 10.639523 8.524640 1.236880 12.043320
366 20.039040 30.131372 0.776138 5.969993 -6.560250 -12.091880
367 21.289249 25.164476 14.401456 2.804250 1.235900 -12.492781
368 23.432562 26.622734 3.404536 3.409302 -0.212018 3.574240
369 18.950489 24.449738 6.244055 -1.544070 -2.024597 -3.442910
370 7.485319 9.673743 14.678101 -1.037910 3.886311 -1.101520
371 8.773479 13.014466 22.196251 -7.962061 -0.843640 -4.557734
372 10.502350 9.581935 17.561995 3.950496 2.754469 -10.406570
373 29.797916 17.232384 10.119239 0.736219 -8.409183 2.387130
374 0.622164 13.560561 6.188538 -1.515407 -3.818160 -9.879380
375 1.910744 14.801961 18.270155 -12.584947 -1.661110 -4.060110
376 24.957216 20.366861 7.972094 -2.357710 8.352668 0.909434
377 2.213413 19.375505 3.852847 -1.326385 6.966670 -9.004583
378 6.261311 11.978039 18.825283 -0.124501 8.274400 2.513250
379 23.556528 8.498728 6.407498 3.747800 5.124721 -5.413565
380 27.157944 17.520018 10.629479 10.310280 -0.492792 10.925530
381 2.925507 5.396973 5.252945 -0.906108 1.533192 -10.974740
382 6.546249 0.324729 8.602661 1.486769 0.005708 -10.218700
383 24.607540 22.758568 18.805161 -1.592410 1.231090 -1.995180
384 2.406387 26.150839 24.160810 7.008330 6.490789 12.513180
385 13.029400 9.769127 26.053932 4.010020 -5.669945 -1.315584
386 7.052284 1.876372 21.796623 -4.630831 -3.318690 2.833321
387 12.876256 7.165407 1.794015 -2.686930 -6.036924 2.699900
388 17.442406 22.798506 26.692516 2.458925 5.811862 2.281766
389 1.772529 14.749177 25.456949 2.129390 2.939470 -0.163410
390 17.286583 16.750490 19.533327 -0.519600 1.549979 3.330480
391 17.485500 13.007622 11.122662 0.927998 -6.454000 -0.870370
392 29.282389 24.944611 10.285369 -5.574810 0.625640 5.549255
393 10.704622 21.572083 2.158317 -1.349690 6.635780 -1.824824
394 14.213394 17.535505 3.769675 3.923960 6.349950 -9.357250
395 28.502811 4.866675 1.330805 -8.136999 -0.407932 -2.984000
396 11.609650 2.386863 10.343801 1.361289 0.610349 0.026630
397 10.496788 25.609812 7.846246 -6.472927 -9.027801 5.560790
398 14.904244 21.116457 29.199717 -9.568799 -1.263000 -19.335531
399 18.086105 18.628122 26.527401 9.645080 2.821200 -1.074978
400 26.631721 29.942650 17.296206 -8.810471 -11.305120 10.485050
401 24.839134 9.688204 4.168944 3.020520 -2.603432 1.102796
402 27.299438 13.426428 3.552593 5.676855 -2.199080 -2.630956
403 28.599022 6.329373 10.313657 -1.718447 0.765019 4.013825
404 26.952478 2.874442 13.147161 -7.976970 5.593818 -7.169000
405 20.295599 12.375517 1.960137 -7.880631 0.671176 0.078660
406 26.837072 18.408667 0.951967 -13.115681 0.388273 -6.769020
407 8.699409 24.445995 2.850195 17.009809 -13.086710 -11.754674
408 2.504927 21.631800 5.464398 5.693330 -3.809772 -6.768514
409 14.658745 29.237940 18.881277 -4.092698 1.182166 -6.460649
410 1.051598 18.686754 8.426228 4.841590 -1.928190 0.042270
411 29.061356 0.587269 22.856134 -1.909750 -4.678447 -2.773180
412 20.974051 10.420250 13.257028 -0.715981 2.080446 -1.454561
413 19.707027 27.172361 7.657821 17.224360 -13.033100 -8.028773
414 26.810633 8.299456 29.606289 1.402777 -1.360334 -8.033840
415 27.360144 21.898178 29.071289 2.764475 7.396882 4.304045
416 5.452202 12.306322 7.882558 2.107392 -4.243916 -3.314902
417 1.674044 27.246622 0.661214 -4.675010 -10.452460 2.076965
418 24.942438 11.500401 23.238434 1.396856 -1.353570 0.309430
419 13.653439 29.127762 0.760941 -5.802560 -0.337720 8.766320
420 10.394299 26.105888 11.122794 -5.893187 -1.243560 0.636803
421 16.610638 11.329272 6.123225 6.687580 2.219019 -11.415379
422 16.787199 2.341633 27.402727 -1.390773 5.678370 0.706347
423 28.701616 14.460694 16.399672 4.941190 -1.222770 0.549204
424 4.530416 15.240050 25.143967 0.681921 -11.905377 -5.154475
425 25.469822 23.569639 14.981417 -1.179670 -10.928471 -3.672043
426 28.554678 10.549128 16.352205 -0.530503 2.650799 4.436593
427 14.273528 27.098917 20.377716 -0.166844 -9.933630 0.561447
428 17.171183 21.074856 0.487080 16.563644 -7.407050 21.929380
429 30.001835 21.181229 6.106461 -4.242966 -3.678187 0.247490
430 29.868183 8.902684 27.893471 -1.542662 3.514445 -1.224525
431 19.451517 10.452367 3.987861 -5.487186 1.441479 8.143190
432 5.863326 13.591261 11.431411 -1.500804 -1.628860 -2.176551
433 7.572660 1.798911 0.662332 1.595640 1.850930 -1.475470
434 0.045082 13.445822 23.545027 -10.317957 18.214655 0.938987
435 16.420361 13.705495 4.719941 -4.740610 1.943334 1.342750
436 26.751905 12.285366 20.346077 1.692004 -10.469597 -1.500449
437 20.330544 17.307184 16.814817 1.643787 5.625830 5.976340
438 22.478668 8.902534 16.988661 -3.159440 -3.011858 3.931121
439 17.290834 10.186642 10.759544 -1.097280 -3.439402 6.410492
440 24.524050 3.093210 20.793972 6.473459 -2.632820 -4.834916
441 14.216188 28.166456 26.946905 -4.766450 -4.910570 -19.692711
442 14.962466 23.267784 4.487413 -9.124270 -1.746910 5.585191
443 29.850410 4.681388 24.350800 -0.945990 4.465064 3.546232
444 7.971134 28.315123 28.755844 -10.938240 3.935111 1.885523
445 26.904861 29.026711 9.368986 11.357205 -4.323700 0.139112
446 28.136705 14.565656 20.109594 5.161024 7.983840 -6.956116
447 8.249967 11.655540 3.208300 -1.676712 1.206661 0.171067
448 3.051131 2.491433 24.263390 10.485904 5.797450 13.867420
449 6.362485 2.530351 12.752122 3.092170 0.222721 5.597219
450 12.472211 29.835894 6.191900 6.218208 2.056004 -2.205900
451 1.361058 28.381207 16.011988 -5.694480 -0.699697 1.145891
452 23.838440 22.008966 10.450133 7.878580 6.332726 -3.193505
453 8.093173 28.575806 19.230394 4.160150 -2.078620 5.089610
454 0.635403 7.543058 16.793623 -5.490316 -4.300550 0.181030
455 22.390673 6.290380 21.884007 1.093820 3.101889 0.665790
456 23.823711 29.654640 28.126522 2.629427 -2.930122 -2.332240
457 18.627151 25.473484 10.852366 10.727945 1.952395 4.760106
458 0.458879 20.326151 10.740578 -4.184550 -11.595739 3.865958
459 3.545917 6.100996 19.679489 6.933671 1.004880 1.906233
460 23.347784 13.469400 2.093315 -2.773845 -4.157095 9.097400
461 17.897417 22.696484 13.133866 -2.926188 -2.658021 -1.196680
462 25.013306 15.443372 5.947303 -0.456670 3.422760 28.779160
463 16.401884 8.691721 18.513887 -0.130080 8.137970 3.604324
464 18.818089 4.099982 12.046961 6.865360 -5.011573 -1.797256
465 13.337412 19.015240 21.157488 -4.527199 -3.114310 -2.472970
466 29.579027 18.284340 27.099228 -2.105999 0.972370 -9.083460
467 27.342812 10.670028 2.741212 -0.616428 0.118640 8.193909
468 12.185500 8.542708 6.077432 -2.943381 9.495620 -9.375481
469 8.551449 14.049406 24.732216 0.706090 -4.798263 -3.534950
470 29.958982 10.395605 5.332601 -12.481980 -14.110930 7.109471
471 2.441597 28.535284 12.391967 2.443860 7.039790 -0.573430
472 26.341171 18.111267 8.228832 -8.703470 7.647010 -5.626030
473 15.505772 17.362110 22.177572 2.791110 1.384514 -3.990720
474 27.438482 2.646070 22.048265 -3.170531 1.366290 2.776600
475 24.078917 26.942127 17.729401 1.924825 7.771181 0.003075
476 7.699967 2.543453 9.838985 -0.508840 1.400580 -6.278136
477 27.652584 15.381311 14.166678 10.053050 2.688100 -17.387739
478 5.143806 0.863480 23.798111 8.661950 -5.630471 -10.096716
479 18.807089 29.996195 28.450861 -1.544720 -8.655690 14.424461
480 6.956685 4.584314 2.951783 -8.613050 -4.873670 -1.740086
481 8.685644 2.757153 25.041410 3.443380 6.483910 -5.995710
482 11.026644 18.128590 24.521450 5.891882 3.705324 0.328302
483 3.053097 17.480261 12.109505 -7.004841 -5.847300 0.916266
484 8.039814 2.514781 4.366325 -10.823828 2.085950 2.451160